
Host: h80adf3e9.dhcp.vt.edu

Timers On : Fri Mar  2 11:22:13 2018
Timers Off: Fri Mar  2 11:22:15 2018

Wall Time:        2.56 seconds


-----------------------------------------------------------

***********************************************************
